PROCAR new format
# of k-points:   85         # of bands:   10         # of ions:    2

 k-point     1 :    0.00000000 0.00000000 0.00000000     weight = 0.00462963

band     1 # energy   -8.07250932 # occ.  2.00000000
 
ion      s      p      d    tot
    1  0.220  0.000  0.000  0.220
    2  0.220  0.000  0.000  0.220
tot    0.439  0.000  0.000  0.439
 
band     2 # energy    5.31463861 # occ.  2.00000000
 
ion      s      p      d    tot
    1  0.000  0.217  0.000  0.217
    2  0.000  0.217  0.000  0.217
tot    0.000  0.435  0.000  0.435
 
band     3 # energy    5.31464162 # occ.  2.00000000
 
ion      s      p      d    tot
    1  0.000  0.217  0.000  0.217
    2  0.000  0.217  0.000  0.217
tot    0.000  0.435  0.000  0.435
 
band     4 # energy    5.31464183 # occ.  2.00000000
 
ion      s      p      d    tot
    1  0.000  0.217  0.000  0.217
    2  0.000  0.217  0.000  0.217
tot    0.000  0.435  0.000  0.435
 
band     5 # energy    8.96673797 # occ.  0.00000000
 
ion      s      p      d    tot
    1  0.000  0.150  0.000  0.150
    2  0.000  0.150  0.000  0.150
tot    0.000  0.301  0.000  0.301
 
band     6 # energy    8.96674132 # occ.  0.00000000
 
ion      s      p      d    tot
    1  0.000  0.150  0.000  0.150
    2  0.000  0.150  0.000  0.150
tot    0.000  0.301  0.000  0.301
 
band     7 # energy    8.96674144 # occ.  0.00000000
 
ion      s      p      d    tot
    1  0.000  0.150  0.000  0.150
    2  0.000  0.150  0.000  0.150
tot    0.000  0.301  0.000  0.301
 
band     8 # energy    9.98651658 # occ.  0.00000000
 
ion      s      p      d    tot
    1  0.365  0.000  0.000  0.365
    2  0.365  0.000  0.000  0.365
tot    0.730  0.000  0.000  0.730
 
band     9 # energy   14.46039612 # occ.  0.00000000
 
ion      s      p      d    tot
    1  0.061  0.000  0.000  0.061
    2  0.061  0.000  0.000  0.061
tot    0.122  0.000  0.000  0.122
 
band    10 # energy   14.46807085 # occ.  0.00000000
 
ion      s      p      d    tot
    1  0.000  0.000  0.000  0.000
    2  0.000  0.000  0.000  0.000
tot    0.000  0.000  0.000  0.000
 

 k-point     2 :    0.16666667 0.00000000 0.00000000     weight = 0.03703704

band     1 # energy   -7.67146719 # occ.  2.00000000
 
ion      s      p      d    tot
    1  0.218  0.004  0.000  0.222
    2  0.218  0.004  0.000  0.222
tot    0.435  0.008  0.000  0.443
 
band     2 # energy    2.71672176 # occ.  2.00000000
 
ion      s      p      d    tot
    1  0.072  0.148  0.000  0.221
    2  0.072  0.148  0.000  0.221
tot    0.145  0.297  0.000  0.442
 
band     3 # energy    4.83502534 # occ.  2.00000000
 
ion      s      p      d    tot
    1  0.000  0.215  0.000  0.215
    2  0.000  0.215  0.000  0.215
tot    0.000  0.430  0.000  0.430
 
band     4 # energy    4.83502787 # occ.  2.00000000
 
ion      s      p      d    tot
    1  0.000  0.215  0.000  0.215
    2  0.000  0.215  0.000  0.215
tot    0.000  0.430  0.000  0.430
 
band     5 # energy    8.75610374 # occ.  0.00000000
 
ion      s      p      d    tot
    1  0.122  0.074  0.000  0.196
    2  0.122  0.074  0.000  0.196
tot    0.244  0.148  0.000  0.392
 
band     6 # energy    9.66668793 # occ.  0.00000000
 
ion      s      p      d    tot
    1  0.000  0.152  0.000  0.152
    2  0.000  0.152  0.000  0.152
tot    0.000  0.303  0.000  0.303
 
band     7 # energy    9.66668807 # occ.  0.00000000
 
ion      s      p      d    tot
    1  0.000  0.152  0.000  0.152
    2  0.000  0.152  0.000  0.152
tot    0.000  0.303  0.000  0.303
 
band     8 # energy   12.13440051 # occ.  0.00000000
 
ion      s      p      d    tot
    1  0.186  0.109  0.000  0.296
    2  0.186  0.109  0.000  0.296
tot    0.372  0.219  0.000  0.591
 
band     9 # energy   13.76080408 # occ.  0.00000000
 
ion      s      p      d    tot
    1  0.000  0.004  0.000  0.004
    2  0.000  0.004  0.000  0.004
tot    0.000  0.008  0.000  0.008
 
band    10 # energy   13.76080870 # occ.  0.00000000
 
ion      s      p      d    tot
    1  0.000  0.004  0.000  0.004
    2  0.000  0.004  0.000  0.004
tot    0.000  0.008  0.000  0.008
 

 k-point     3 :    0.33333333 0.00000000 0.00000000     weight = 0.03703704

band     1 # energy   -6.54065872 # occ.  2.00000000
 
ion      s      p      d    tot
    1  0.216  0.013  0.000  0.229
    2  0.216  0.013  0.000  0.229
tot    0.433  0.026  0.000  0.459
 
band     2 # energy   -0.64184289 # occ.  2.00000000
 
ion      s      p      d    tot
    1  0.105  0.107  0.000  0.212
    2  0.105  0.107  0.000  0.212
tot    0.210  0.213  0.000  0.424
 
band     3 # energy    4.21157696 # occ.  2.00000000
 
ion      s      p      d    tot
    1  0.000  0.218  0.000  0.218
    2  0.000  0.218  0.000  0.218
tot    0.000  0.435  0.000  0.435
 
band     4 # energy    4.21157902 # occ.  2.00000000
 
ion      s      p      d    tot
    1  0.000  0.218  0.000  0.218
    2  0.000  0.218  0.000  0.218
tot    0.000  0.435  0.000  0.435
 
band     5 # energy    8.12401241 # occ.  0.00000000
 
ion      s      p      d    tot
    1  0.175  0.030  0.000  0.205
    2  0.175  0.030  0.000  0.205
tot    0.349  0.060  0.000  0.410
 
band     6 # energy    9.98344058 # occ.  0.00000000
 
ion      s      p      d    tot
    1  0.000  0.111  0.000  0.111
    2  0.000  0.111  0.000  0.111
tot    0.000  0.223  0.000  0.223
 
band     7 # energy    9.98344744 # occ.  0.00000000
 
ion      s      p      d    tot
    1  0.000  0.111  0.000  0.111
    2  0.000  0.111  0.000  0.111
tot    0.000  0.223  0.000  0.223
 
band     8 # energy   14.53243937 # occ.  0.00000000
 
ion      s      p      d    tot
    1  0.010  0.103  0.000  0.113
    2  0.010  0.103  0.000  0.113
tot    0.021  0.206  0.000  0.227
 
band     9 # energy   14.74903889 # occ.  0.00000000
 
ion      s      p      d    tot
    1  0.000  0.037  0.000  0.037
    2  0.000  0.037  0.000  0.037
tot    0.000  0.074  0.000  0.074
 
band    10 # energy   14.74905818 # occ.  0.00000000
 
ion      s      p      d    tot
    1  0.000  0.037  0.000  0.037
    2  0.000  0.037  0.000  0.037
tot    0.000  0.074  0.000  0.074
 

 k-point     4 :    0.50000000 0.00000000 0.00000000     weight = 0.01851852

band     1 # energy   -5.47235832 # occ.  2.00000000
 
ion      s      p      d    tot
    1  0.230  0.014  0.000  0.245
    2  0.230  0.014  0.000  0.245
tot    0.461  0.029  0.000  0.489
 
band     2 # energy   -2.49509273 # occ.  2.00000000
 
ion      s      p      d    tot
    1  0.099  0.096  0.000  0.196
    2  0.099  0.096  0.000  0.196
tot    0.198  0.193  0.000  0.391
 
band     3 # energy    3.98261357 # occ.  2.00000000
 
ion      s      p      d    tot
    1  0.000  0.220  0.000  0.220
    2  0.000  0.220  0.000  0.220
tot    0.000  0.440  0.000  0.440
 
band     4 # energy    3.98261538 # occ.  2.00000000
 
ion      s      p      d    tot
    1  0.000  0.220  0.000  0.220
    2  0.000  0.220  0.000  0.220
tot    0.000  0.440  0.000  0.440
 
band     5 # energy    7.88358675 # occ.  0.00000000
 
ion      s      p      d    tot
    1  0.189  0.017  0.000  0.207
    2  0.189  0.017  0.000  0.207
tot    0.378  0.035  0.000  0.413
 
band     6 # energy    9.79545684 # occ.  0.00000000
 
ion      s      p      d    tot
    1  0.000  0.091  0.000  0.091
    2  0.000  0.091  0.000  0.091
tot    0.000  0.183  0.000  0.183
 
band     7 # energy    9.79546494 # occ.  0.00000000
 
ion      s      p      d    tot
    1  0.000  0.091  0.000  0.091
    2  0.000  0.091  0.000  0.091
tot    0.000  0.183  0.000  0.183
 
band     8 # energy   14.28213558 # occ.  0.00000000
 
ion      s      p      d    tot
    1  0.007  0.045  0.000  0.053
    2  0.007  0.045  0.000  0.053
tot    0.014  0.091  0.000  0.105
 
band     9 # energy   17.50725641 # occ.  0.00000000
 
ion      s      p      d    tot
    1  0.000  0.000  0.000  0.000
    2  0.000  0.000  0.000  0.000
tot    0.000  0.001  0.000  0.001
 
band    10 # energy   17.50729348 # occ.  0.00000000
 
ion      s      p      d    tot
    1  0.000  0.000  0.000  0.000
    2  0.000  0.000  0.000  0.000
tot    0.000  0.001  0.000  0.001
 

 k-point     5 :    0.16666667 0.16666667 0.00000000     weight = 0.02777778

band     1 # energy   -7.53487467 # occ.  2.00000000
 
ion      s      p      d    tot
    1  0.217  0.005  0.000  0.222
    2  0.217  0.005  0.000  0.222
tot    0.434  0.011  0.000  0.444
 
band     2 # energy    3.10963617 # occ.  2.00000000
 
ion      s      p      d    tot
    1  0.115  0.136  0.000  0.251
    2  0.115  0.136  0.000  0.251
tot    0.229  0.272  0.000  0.502
 
band     3 # energy    4.02226793 # occ.  2.00000000
 
ion      s      p      d    tot
    1  0.000  0.204  0.000  0.204
    2  0.000  0.204  0.000  0.204
tot    0.000  0.407  0.000  0.407
 
band     4 # energy    4.02226970 # occ.  2.00000000
 
ion      s      p      d    tot
    1  0.000  0.204  0.000  0.204
    2  0.000  0.204  0.000  0.204
tot    0.000  0.407  0.000  0.407
 
band     5 # energy    8.00503861 # occ.  0.00000000
 
ion      s      p      d    tot
    1  0.031  0.100  0.000  0.131
    2  0.031  0.100  0.000  0.131
tot    0.062  0.200  0.000  0.262
 
band     6 # energy   10.84972377 # occ.  0.00000000
 
ion      s      p      d    tot
    1  0.114  0.057  0.000  0.171
    2  0.114  0.057  0.000  0.171
tot    0.228  0.114  0.000  0.342
 
band     7 # energy   10.89486068 # occ.  0.00000000
 
ion      s      p      d    tot
    1  0.000  0.164  0.000  0.164
    2  0.000  0.164  0.000  0.164
tot    0.000  0.327  0.000  0.327
 
band     8 # energy   10.89486331 # occ.  0.00000000
 
ion      s      p      d    tot
    1  0.000  0.164  0.000  0.164
    2  0.000  0.164  0.000  0.164
tot    0.000  0.327  0.000  0.327
 
band     9 # energy   13.31242488 # occ.  0.00000000
 
ion      s      p      d    tot
    1  0.137  0.036  0.000  0.173
    2  0.137  0.036  0.000  0.173
tot    0.274  0.073  0.000  0.346
 
band    10 # energy   15.04784879 # occ.  0.00000000
 
ion      s      p      d    tot
    1  0.000  0.000  0.000  0.000
    2  0.000  0.000  0.000  0.000
tot    0.000  0.000  0.000  0.000
 

 k-point     6 :    0.33333333 0.16666667 0.00000000     weight = 0.11111111

band     1 # energy   -6.62724459 # occ.  2.00000000
 
ion      s      p      d    tot
    1  0.214  0.014  0.000  0.227
    2  0.214  0.014  0.000  0.227
tot    0.427  0.028  0.000  0.455
 
band     2 # energy    0.38089712 # occ.  2.00000000
 
ion      s      p      d    tot
    1  0.125  0.108  0.000  0.233
    2  0.125  0.108  0.000  0.233
tot    0.251  0.216  0.000  0.467
 
band     3 # energy    3.16139336 # occ.  2.00000000
 
ion      s      p      d    tot
    1  0.030  0.176  0.000  0.206
    2  0.030  0.176  0.000  0.206
tot    0.060  0.352  0.000  0.412
 
band     4 # energy    3.39073280 # occ.  2.00000000
 
ion      s      p      d    tot
    1  0.000  0.204  0.000  0.204
    2  0.000  0.204  0.000  0.204
tot    0.000  0.408  0.000  0.408
 
band     5 # energy    8.27108161 # occ.  0.00000000
 
ion      s      p      d    tot
    1  0.043  0.083  0.000  0.126
    2  0.043  0.083  0.000  0.126
tot    0.086  0.166  0.000  0.253
 
band     6 # energy   10.60300200 # occ.  0.00000000
 
ion      s      p      d    tot
    1  0.061  0.067  0.000  0.128
    2  0.061  0.067  0.000  0.128
tot    0.122  0.134  0.000  0.256
 
band     7 # energy   11.03746269 # occ.  0.00000000
 
ion      s      p      d    tot
    1  0.038  0.104  0.000  0.142
    2  0.038  0.104  0.000  0.142
tot    0.077  0.208  0.000  0.285
 
band     8 # energy   11.68874151 # occ.  0.00000000
 
ion      s      p      d    tot
    1  0.000  0.136  0.000  0.136
    2  0.000  0.136  0.000  0.136
tot    0.000  0.272  0.000  0.272
 
band     9 # energy   15.91567603 # occ.  0.00000000
 
ion      s      p      d    tot
    1  0.000  0.024  0.000  0.024
    2  0.000  0.024  0.000  0.024
tot    0.000  0.048  0.000  0.048
 
band    10 # energy   16.06663388 # occ.  0.00000000
 
ion      s      p      d    tot
    1  0.095  0.132  0.000  0.227
    2  0.095  0.132  0.000  0.227
tot    0.190  0.265  0.000  0.455
 

 k-point     7 :    0.50000000 0.16666667 0.00000000     weight = 0.11111111

band     1 # energy   -5.29484637 # occ.  2.00000000
 
ion      s      p      d    tot
    1  0.222  0.020  0.000  0.242
    2  0.222  0.020  0.000  0.242
tot    0.444  0.040  0.000  0.484
 
band     2 # energy   -2.08004000 # occ.  2.00000000
 
ion      s      p      d    tot
    1  0.122  0.090  0.000  0.212
    2  0.122  0.090  0.000  0.212
tot    0.244  0.180  0.000  0.424
 
band     3 # energy    2.27475661 # occ.  2.00000000
 
ion      s      p      d    tot
    1  0.039  0.162  0.000  0.201
    2  0.039  0.162  0.000  0.201
tot    0.077  0.325  0.000  0.402
 
band     4 # energy    3.34884909 # occ.  2.00000000
 
ion      s      p      d    tot
    1  0.000  0.209  0.000  0.209
    2  0.000  0.209  0.000  0.209
tot    0.000  0.417  0.000  0.417
 
band     5 # energy    8.37686527 # occ.  0.00000000
 
ion      s      p      d    tot
    1  0.065  0.056  0.000  0.120
    2  0.065  0.056  0.000  0.120
tot    0.130  0.111  0.000  0.241
 
band     6 # energy   10.61729610 # occ.  0.00000000
 
ion      s      p      d    tot
    1  0.064  0.092  0.000  0.156
    2  0.064  0.092  0.000  0.156
tot    0.128  0.184  0.000  0.312
 
band     7 # energy   11.18699735 # occ.  0.00000000
 
ion      s      p      d    tot
    1  0.000  0.103  0.000  0.103
    2  0.000  0.103  0.000  0.103
tot    0.000  0.206  0.000  0.206
 
band     8 # energy   13.11971924 # occ.  0.00000000
 
ion      s      p      d    tot
    1  0.023  0.101  0.000  0.124
    2  0.023  0.101  0.000  0.124
tot    0.047  0.202  0.000  0.249
 
band     9 # energy   16.17037075 # occ.  0.00000000
 
ion      s      p      d    tot
    1  0.005  0.077  0.000  0.081
    2  0.005  0.077  0.000  0.081
tot    0.009  0.154  0.000  0.163
 
band    10 # energy   17.42235314 # occ.  0.00000000
 
ion      s      p      d    tot
    1  0.000  0.035  0.000  0.035
    2  0.000  0.035  0.000  0.035
tot    0.000  0.069  0.000  0.069
 

 k-point     8 :   -0.33333333 0.16666667 0.00000000     weight = 0.11111111

band     1 # energy   -5.72615081 # occ.  2.00000000
 
ion      s      p      d    tot
    1  0.217  0.019  0.000  0.236
    2  0.217  0.019  0.000  0.236
tot    0.434  0.038  0.000  0.472
 
band     2 # energy   -1.40174081 # occ.  2.00000000
 
ion      s      p      d    tot
    1  0.126  0.093  0.000  0.219
    2  0.126  0.093  0.000  0.219
tot    0.253  0.186  0.000  0.439
 
band     3 # energy    1.96687951 # occ.  2.00000000
 
ion      s      p      d    tot
    1  0.032  0.161  0.000  0.193
    2  0.032  0.161  0.000  0.193
tot    0.064  0.322  0.000  0.386
 
band     4 # energy    3.88271435 # occ.  2.00000000
 
ion      s      p      d    tot
    1  0.000  0.215  0.000  0.215
    2  0.000  0.215  0.000  0.215
tot    0.000  0.431  0.000  0.431
 
band     5 # energy    8.84304731 # occ.  0.00000000
 
ion      s      p      d    tot
    1  0.082  0.060  0.000  0.142
    2  0.082  0.060  0.000  0.142
tot    0.163  0.121  0.000  0.284
 
band     6 # energy   10.59778221 # occ.  0.00000000
 
ion      s      p      d    tot
    1  0.049  0.092  0.000  0.141
    2  0.049  0.092  0.000  0.141
tot    0.098  0.185  0.000  0.282
 
band     7 # energy   10.78516712 # occ.  0.00000000
 
ion      s      p      d    tot
    1  0.000  0.112  0.000  0.112
    2  0.000  0.112  0.000  0.112
tot    0.000  0.224  0.000  0.224
 
band     8 # energy   14.04162249 # occ.  0.00000000
 
ion      s      p      d    tot
    1  0.000  0.040  0.000  0.040
    2  0.000  0.040  0.000  0.040
tot    0.000  0.080  0.000  0.080
 
band     9 # energy   14.04825074 # occ.  0.00000000
 
ion      s      p      d    tot
    1  0.041  0.122  0.000  0.163
    2  0.041  0.122  0.000  0.163
tot    0.083  0.244  0.000  0.326
 
band    10 # energy   16.23504401 # occ.  0.00000000
 
ion      s      p      d    tot
    1  0.009  0.107  0.000  0.115
    2  0.009  0.107  0.000  0.115
tot    0.017  0.213  0.000  0.231
 

 k-point     9 :   -0.16666667 0.16666667 0.00000000     weight = 0.05555556

band     1 # energy   -7.01715159 # occ.  2.00000000
 
ion      s      p      d    tot
    1  0.215  0.010  0.000  0.225
    2  0.215  0.010  0.000  0.225
tot    0.430  0.020  0.000  0.451
 
band     2 # energy    1.19548048 # occ.  2.00000000
 
ion      s      p      d    tot
    1  0.119  0.118  0.000  0.237
    2  0.119  0.118  0.000  0.237
tot    0.239  0.236  0.000  0.475
 
band     3 # energy    2.69000462 # occ.  2.00000000
 
ion      s      p      d    tot
    1  0.011  0.174  0.000  0.185
    2  0.011  0.174  0.000  0.185
tot    0.021  0.349  0.000  0.370
 
band     4 # energy    4.69796932 # occ.  2.00000000
 
ion      s      p      d    tot
    1  0.000  0.222  0.000  0.222
    2  0.000  0.222  0.000  0.222
tot    0.000  0.444  0.000  0.444
 
band     5 # energy    9.52562566 # occ.  0.00000000
 
ion      s      p      d    tot
    1  0.095  0.090  0.000  0.185
    2  0.095  0.090  0.000  0.185
tot    0.190  0.180  0.000  0.370
 
band     6 # energy   10.08280693 # occ.  0.00000000
 
ion      s      p      d    tot
    1  0.000  0.148  0.000  0.148
    2  0.000  0.148  0.000  0.148
tot    0.000  0.297  0.000  0.297
 
band     7 # energy   10.26718007 # occ.  0.00000000
 
ion      s      p      d    tot
    1  0.033  0.115  0.000  0.148
    2  0.033  0.115  0.000  0.148
tot    0.066  0.229  0.000  0.295
 
band     8 # energy   12.30095717 # occ.  0.00000000
 
ion      s      p      d    tot
    1  0.075  0.088  0.000  0.164
    2  0.075  0.088  0.000  0.164
tot    0.150  0.177  0.000  0.327
 
band     9 # energy   12.68620113 # occ.  0.00000000
 
ion      s      p      d    tot
    1  0.000  0.001  0.000  0.001
    2  0.000  0.001  0.000  0.001
tot    0.000  0.001  0.000  0.001
 
band    10 # energy   16.31126353 # occ.  0.00000000
 
ion      s      p      d    tot
    1  0.068  0.087  0.000  0.155
    2  0.068  0.087  0.000  0.155
tot    0.136  0.173  0.000  0.309
 

 k-point    10 :    0.33333333 0.33333333 0.00000000     weight = 0.02777778

band     1 # energy   -5.95255804 # occ.  2.00000000
 
ion      s      p      d    tot
    1  0.209  0.021  0.000  0.230
    2  0.209  0.021  0.000  0.230
tot    0.418  0.043  0.000  0.461
 
band     2 # energy   -0.26922089 # occ.  2.00000000
 
ion      s      p      d    tot
    1  0.174  0.083  0.000  0.256
    2  0.174  0.083  0.000  0.256
tot    0.347  0.165  0.000  0.513
 
band     3 # energy    2.63044234 # occ.  2.00000000
 
ion      s      p      d    tot
    1  0.000  0.200  0.000  0.200
    2  0.000  0.200  0.000  0.200
tot    0.000  0.399  0.000  0.399
 
band     4 # energy    2.63044393 # occ.  2.00000000
 
ion      s      p      d    tot
    1  0.000  0.200  0.000  0.200
    2  0.000  0.200  0.000  0.200
tot    0.000  0.399  0.000  0.399
 
band     5 # energy    6.93578417 # occ.  0.00000000
 
ion      s      p      d    tot
    1  0.052  0.055  0.000  0.107
    2  0.052  0.055  0.000  0.107
tot    0.105  0.110  0.000  0.215
 
band     6 # energy    8.30658984 # occ.  0.00000000
 
ion      s      p      d    tot
    1  0.044  0.028  0.000  0.072
    2  0.044  0.028  0.000  0.072
tot    0.088  0.056  0.000  0.144
 
band     7 # energy   14.08653066 # occ.  0.00000000
 
ion      s      p      d    tot
    1  0.000  0.163  0.000  0.163
    2  0.000  0.163  0.000  0.163
tot    0.000  0.325  0.000  0.325
 
band     8 # energy   14.08653361 # occ.  0.00000000
 
ion      s      p      d    tot
    1  0.000  0.163  0.000  0.163
    2  0.000  0.163  0.000  0.163
tot    0.000  0.325  0.000  0.325
 
band     9 # energy   16.75735959 # occ.  0.00000000
 
ion      s      p      d    tot
    1  0.000  0.000  0.000  0.000
    2  0.000  0.000  0.000  0.000
tot    0.000  0.000  0.000  0.000
 
band    10 # energy   16.82727889 # occ.  0.00000000
 
ion      s      p      d    tot
    1  0.143  0.139  0.000  0.282
    2  0.143  0.139  0.000  0.282
tot    0.287  0.278  0.000  0.565
 

 k-point    11 :    0.50000000 0.33333333 0.00000000     weight = 0.11111111

band     1 # energy   -4.64960113 # occ.  2.00000000
 
ion      s      p      d    tot
    1  0.207  0.032  0.000  0.240
    2  0.207  0.032  0.000  0.240
tot    0.415  0.065  0.000  0.480
 
band     2 # energy   -2.02972351 # occ.  2.00000000
 
ion      s      p      d    tot
    1  0.187  0.063  0.000  0.250
    2  0.187  0.063  0.000  0.250
tot    0.373  0.127  0.000  0.500
 
band     3 # energy    1.29954152 # occ.  2.00000000
 
ion      s      p      d    tot
    1  0.005  0.168  0.000  0.173
    2  0.005  0.168  0.000  0.173
tot    0.010  0.336  0.000  0.347
 
band     4 # energy    2.47317587 # occ.  2.00000000
 
ion      s      p      d    tot
    1  0.000  0.201  0.000  0.201
    2  0.000  0.201  0.000  0.201
tot    0.000  0.401  0.000  0.401
 
band     5 # energy    7.30367643 # occ.  0.00000000
 
ion      s      p      d    tot
    1  0.051  0.041  0.000  0.093
    2  0.051  0.041  0.000  0.093
tot    0.103  0.082  0.000  0.185
 
band     6 # energy    9.08353194 # occ.  0.00000000
 
ion      s      p      d    tot
    1  0.035  0.066  0.000  0.101
    2  0.035  0.066  0.000  0.101
tot    0.069  0.133  0.000  0.202
 
band     7 # energy   14.26056416 # occ.  0.00000000
 
ion      s      p      d    tot
    1  0.000  0.120  0.000  0.120
    2  0.000  0.120  0.000  0.120
tot    0.000  0.240  0.000  0.240
 
band     8 # energy   14.30303443 # occ.  0.00000000
 
ion      s      p      d    tot
    1  0.044  0.137  0.000  0.181
    2  0.044  0.137  0.000  0.181
tot    0.088  0.274  0.000  0.362
 
band     9 # energy   17.62337396 # occ.  0.00000000
 
ion      s      p      d    tot
    1  0.015  0.150  0.000  0.165
    2  0.015  0.150  0.000  0.165
tot    0.030  0.300  0.000  0.331
 
band    10 # energy   17.66821268 # occ.  0.00000000
 
ion      s      p      d    tot
    1  0.000  0.057  0.000  0.057
    2  0.000  0.057  0.000  0.057
tot    0.000  0.113  0.000  0.113
 

 k-point    12 :   -0.33333333 0.33333333 0.00000000     weight = 0.05555556

band     1 # energy   -4.42744503 # occ.  2.00000000
 
ion      s      p      d    tot
    1  0.218  0.029  0.000  0.248
    2  0.218  0.029  0.000  0.248
tot    0.437  0.058  0.000  0.495
 
band     2 # energy   -2.26248322 # occ.  2.00000000
 
ion      s      p      d    tot
    1  0.177  0.065  0.000  0.243
    2  0.177  0.065  0.000  0.243
tot    0.355  0.131  0.000  0.486
 
band     3 # energy    0.41249633 # occ.  2.00000000
 
ion      s      p      d    tot
    1  0.004  0.155  0.000  0.159
    2  0.004  0.155  0.000  0.159
tot    0.007  0.310  0.000  0.318
 
band     4 # energy    2.97066264 # occ.  2.00000000
 
ion      s      p      d    tot
    1  0.000  0.205  0.000  0.205
    2  0.000  0.205  0.000  0.205
tot    0.000  0.411  0.000  0.411
 
band     5 # energy    7.85571394 # occ.  0.00000000
 
ion      s      p      d    tot
    1  0.055  0.043  0.000  0.098
    2  0.055  0.043  0.000  0.098
tot    0.109  0.087  0.000  0.196
 
band     6 # energy   12.37308247 # occ.  0.00000000
 
ion      s      p      d    tot
    1  0.004  0.070  0.000  0.074
    2  0.004  0.070  0.000  0.074
tot    0.008  0.140  0.000  0.148
 
band     7 # energy   13.26454474 # occ.  0.00000000
 
ion      s      p      d    tot
    1  0.000  0.150  0.000  0.150
    2  0.000  0.150  0.000  0.150
tot    0.000  0.300  0.000  0.300
 
band     8 # energy   13.87116073 # occ.  0.00000000
 
ion      s      p      d    tot
    1  0.050  0.135  0.000  0.184
    2  0.050  0.135  0.000  0.184
tot    0.099  0.269  0.000  0.369
 
band     9 # energy   14.27524020 # occ.  0.00000000
 
ion      s      p      d    tot
    1  0.067  0.155  0.000  0.223
    2  0.067  0.155  0.000  0.223
tot    0.135  0.310  0.000  0.445
 
band    10 # energy   14.36814389 # occ.  0.00000000
 
ion      s      p      d    tot
    1  0.000  0.013  0.000  0.013
    2  0.000  0.013  0.000  0.013
tot    0.000  0.026  0.000  0.026
 

 k-point    13 :    0.50000000 0.50000000 0.00000000     weight = 0.01388889

band     1 # energy   -3.44154133 # occ.  2.00000000
 
ion      s      p      d    tot
    1  0.195  0.047  0.000  0.243
    2  0.198  0.047  0.000  0.244
tot    0.393  0.094  0.000  0.487
 
band     2 # energy   -3.44154124 # occ.  2.00000000
 
ion      s      p      d    tot
    1  0.198  0.047  0.000  0.244
    2  0.195  0.047  0.000  0.243
tot    0.393  0.094  0.000  0.487
 
band     3 # energy    2.13621211 # occ.  2.00000000
 
ion      s      p      d    tot
    1  0.000  0.199  0.000  0.199
    2  0.000  0.199  0.000  0.199
tot    0.000  0.398  0.000  0.398
 
band     4 # energy    2.13621362 # occ.  2.00000000
 
ion      s      p      d    tot
    1  0.000  0.199  0.000  0.199
    2  0.000  0.199  0.000  0.199
tot    0.000  0.398  0.000  0.398
 
band     5 # energy    6.92257380 # occ.  0.00000000
 
ion      s      p      d    tot
    1  0.053  0.033  0.000  0.086
    2  0.053  0.033  0.000  0.086
tot    0.106  0.066  0.000  0.171
 
band     6 # energy    6.92258143 # occ.  0.00000000
 
ion      s      p      d    tot
    1  0.053  0.033  0.000  0.086
    2  0.053  0.033  0.000  0.086
tot    0.106  0.066  0.000  0.171
 
band     7 # energy   17.19723216 # occ.  0.00000000
 
ion      s      p      d    tot
    1  0.000  0.239  0.000  0.239
    2  0.000  0.239  0.000  0.239
tot    0.000  0.479  0.000  0.479
 
band     8 # energy   17.19723713 # occ.  0.00000000
 
ion      s      p      d    tot
    1  0.000  0.239  0.000  0.239
    2  0.000  0.239  0.000  0.239
tot    0.000  0.479  0.000  0.479
 
band     9 # energy   17.93903644 # occ.  0.00000000
 
ion      s      p      d    tot
    1  0.000  0.012  0.000  0.012
    2  0.000  0.012  0.000  0.012
tot    0.000  0.025  0.000  0.025
 
band    10 # energy   17.93903706 # occ.  0.00000000
 
ion      s      p      d    tot
    1  0.000  0.012  0.000  0.012
    2  0.000  0.012  0.000  0.012
tot    0.000  0.025  0.000  0.025
 

 k-point    14 :    0.50000000 0.33333333 0.16666667     weight = 0.11111111

band     1 # energy   -5.52150407 # occ.  2.00000000
 
ion      s      p      d    tot
    1  0.212  0.023  0.000  0.235
    2  0.212  0.023  0.000  0.235
tot    0.423  0.047  0.000  0.470
 
band     2 # energy   -0.98761454 # occ.  2.00000000
 
ion      s      p      d    tot
    1  0.170  0.080  0.000  0.249
    2  0.170  0.080  0.000  0.249
tot    0.339  0.159  0.000  0.499
 
band     3 # energy    1.37379806 # occ.  2.00000000
 
ion      s      p      d    tot
    1  0.011  0.164  0.000  0.175
    2  0.011  0.164  0.000  0.175
tot    0.022  0.328  0.000  0.349
 
band     4 # energy    2.79910122 # occ.  2.00000000
 
ion      s      p      d    tot
    1  0.004  0.189  0.000  0.193
    2  0.004  0.189  0.000  0.193
tot    0.008  0.378  0.000  0.386
 
band     5 # energy    9.24035468 # occ.  0.00000000
 
ion      s      p      d    tot
    1  0.031  0.096  0.000  0.127
    2  0.031  0.096  0.000  0.127
tot    0.062  0.192  0.000  0.254
 
band     6 # energy   10.12848085 # occ.  0.00000000
 
ion      s      p      d    tot
    1  0.015  0.055  0.000  0.070
    2  0.015  0.055  0.000  0.070
tot    0.029  0.110  0.000  0.139
 
band     7 # energy   10.80198929 # occ.  0.00000000
 
ion      s      p      d    tot
    1  0.071  0.097  0.000  0.168
    2  0.071  0.097  0.000  0.168
tot    0.143  0.193  0.000  0.336
 
band     8 # energy   13.85253102 # occ.  0.00000000
 
ion      s      p      d    tot
    1  0.005  0.144  0.000  0.149
    2  0.005  0.144  0.000  0.149
tot    0.011  0.287  0.000  0.298
 
band     9 # energy   15.86572768 # occ.  0.00000000
 
ion      s      p      d    tot
    1  0.041  0.066  0.000  0.107
    2  0.041  0.066  0.000  0.107
tot    0.082  0.132  0.000  0.214
 
band    10 # energy   16.84633669 # occ.  0.00000000
 
ion      s      p      d    tot
    1  0.006  0.134  0.000  0.140
    2  0.006  0.134  0.000  0.140
tot    0.012  0.269  0.000  0.281
 

 k-point    15 :   -0.33333333 0.33333333 0.16666667     weight = 0.11111111

band     1 # energy   -4.41638769 # occ.  2.00000000
 
ion      s      p      d    tot
    1  0.220  0.029  0.000  0.248
    2  0.220  0.029  0.000  0.248
tot    0.440  0.057  0.000  0.497
 
band     2 # energy   -2.34490536 # occ.  2.00000000
 
ion      s      p      d    tot
    1  0.167  0.069  0.000  0.236
    2  0.167  0.069  0.000  0.236
tot    0.334  0.139  0.000  0.473
 
band     3 # energy    0.87264705 # occ.  2.00000000
 
ion      s      p      d    tot
    1  0.019  0.155  0.000  0.173
    2  0.019  0.155  0.000  0.173
tot    0.038  0.309  0.000  0.347
 
band     4 # energy    2.27704663 # occ.  2.00000000
 
ion      s      p      d    tot
    1  0.001  0.183  0.000  0.184
    2  0.001  0.183  0.000  0.184
tot    0.002  0.366  0.000  0.369
 
band     5 # energy    9.73864317 # occ.  0.00000000
 
ion      s      p      d    tot
    1  0.008  0.079  0.000  0.087
    2  0.008  0.079  0.000  0.087
tot    0.016  0.158  0.000  0.174
 
band     6 # energy   10.04490373 # occ.  0.00000000
 
ion      s      p      d    tot
    1  0.063  0.082  0.000  0.146
    2  0.063  0.082  0.000  0.146
tot    0.127  0.165  0.000  0.291
 
band     7 # energy   12.73895116 # occ.  0.00000000
 
ion      s      p      d    tot
    1  0.019  0.077  0.000  0.096
    2  0.019  0.077  0.000  0.096
tot    0.038  0.154  0.000  0.192
 
band     8 # energy   13.27614020 # occ.  0.00000000
 
ion      s      p      d    tot
    1  0.035  0.118  0.000  0.153
    2  0.035  0.118  0.000  0.153
tot    0.070  0.235  0.000  0.305
 
band     9 # energy   14.37934014 # occ.  0.00000000
 
ion      s      p      d    tot
    1  0.021  0.132  0.000  0.153
    2  0.021  0.132  0.000  0.153
tot    0.041  0.264  0.000  0.305
 
band    10 # energy   18.11625181 # occ.  0.00000000
 
ion      s      p      d    tot
    1  0.005  0.081  0.000  0.086
    2  0.005  0.081  0.000  0.086
tot    0.009  0.163  0.000  0.172
 

 k-point    16 :   -0.33333333 0.50000000 0.16666667     weight = 0.05555556